1
Properties=species:S:1:pos:R:3:energies:R:1:forces:R:3:charge:R:1 0.09596394=T energy=5.2128988263810445 free_energy=5.2128988263810445 dipole="0.0 0.0 0.0" pbc="F F F"
K        0.00000000       0.00000000       0.00000000       5.21289883      -0.00000000      -0.00000000      -0.00000000       1.00000000
