1
Properties=species:S:1:pos:R:3:energies:R:1:forces:R:3:charge:R:1 -3.76135634=T energy=-102.52180696169783 free_energy=-102.52180696169783 dipole="0.0 0.0 0.0" pbc="F F F"
O        0.00000000       0.00000000       0.00000000    -102.52180696      -0.00000000      -0.00000000      -0.00000000       0.00000001
