26
Properties=species:S:1:pos:R:3:energies:R:1:forces:R:3:charge:R:1 energy=-922.3512969148105 free_energy=-922.3512969148105 dipole="-0.18264565434458394 -0.62933492067639 0.24637348977705645" pbc="F F F"
C       -2.19432202      -1.76069375      -0.15319808     -59.47885357      -0.00157953      -0.00227397      -0.00044178      -0.10803572
C       -1.17451170      -0.70625169       0.26478424     -59.14244536      -0.00246244      -0.00164832       0.00023524      -0.01119353
C        0.24761232      -1.26484243       0.22300563     -59.26217679       0.00103214      -0.00546122       0.00066049      -0.06717845
C        1.26626036      -0.21657685       0.67121895     -59.16182119       0.00376638      -0.00399124      -0.00103972      -0.01284799
C        2.68207004      -0.78389305       0.65122922     -59.48536620      -0.00000113       0.00030846       0.00033996      -0.10868560
C        1.17463946       1.01434586      -0.23081531     -59.01111417      -0.00169334      -0.00008582       0.00123019      -0.05619543
C       -0.24880423       1.59223362      -0.22349486     -59.13781230       0.00287154       0.00945151      -0.00109274       0.15622222
O       -0.50764636       2.08983127       1.07769888    -112.86192703       0.00434226      -0.00207759      -0.00154711      -0.43324144
C       -0.31839442       2.67934768      -1.19538902     -57.49572853      -0.00312245      -0.00211280      -0.00154197       0.09388945
N       -0.40800335       3.53655335      -1.94695039     -79.73819799       0.00306699       0.00405577       0.00451868      -0.22302032
C       -1.27068389       0.51875554      -0.64498522     -59.00383552       0.00456483       0.00595018       0.00095287      -0.06340992
H       -2.14225723      -2.62175529       0.50874590     -13.38747296      -0.00049357       0.00020759       0.00032959       0.03942834
H       -1.99845188      -2.09697076      -1.16937296     -13.40704981      -0.00016873      -0.00113285       0.00029004       0.03692675
H       -3.20449292      -1.35881446      -0.11464714     -13.42863393       0.00011183      -0.00003477       0.00328676       0.03538124
H       -1.39000327      -0.38936837       1.29118024     -13.25965765      -0.00493572      -0.00192692       0.00543681       0.04002892
H        0.48147741      -1.58983887      -0.79432144     -13.35736306       0.00056841       0.00717173      -0.00636027       0.03484246
H        0.31319937      -2.13848137       0.87431042     -13.35505631       0.00306445      -0.00374408       0.00567470       0.03613414
H        1.02191245       0.09608111       1.69125397     -13.18665721       0.00097493      -0.00069613      -0.00113339       0.04830835
H        2.95211844      -1.10146553      -0.35418484     -13.41257453      -0.00264312       0.00196637       0.00323985       0.03607811
H        2.75575932      -1.64340539       1.31353128     -13.38914003      -0.00164774       0.00315109      -0.00333190       0.03897954
H        3.39990765      -0.03567442       0.97891203     -13.40167302      -0.00254175      -0.00101838       0.00007700       0.03852323
H        1.44458741       0.75131982      -1.25600442     -13.34383404      -0.00069060      -0.00237989      -0.00124543       0.03856799
H        1.86166244       1.78563928       0.12145130     -13.22206128      -0.00166700       0.00183856       0.00114498       0.05125963
H       -1.39255767       2.47067908       1.10515123     -11.65362524      -0.00176716      -0.00073233      -0.00582348       0.28933277
H       -1.07196731       0.23153468      -1.67995336     -13.34051880       0.00058362      -0.00569709      -0.00304839       0.03979757
H       -2.27911040       0.94171081      -0.60247517     -13.42670039       0.00046689       0.00091214      -0.00081098       0.03010771
