25
Properties=species:S:1:pos:R:3:energies:R:1:forces:R:3:charge:R:1 energy=-881.0343005118807 free_energy=-881.0343005118807 dipole="0.10938691393115056 0.02789660029633487 -0.16492093978562125" pbc="F F F"
C       -2.09393434      -1.50829040       0.43036454     -59.86008770      -0.00175910       0.00159780       0.00088172      -0.13162058
C       -0.85001227      -0.92020976      -0.23118675     -59.10653305       0.00051466       0.00398138       0.00567288      -0.00780868
C        0.29533698      -0.81858897       0.75698389     -58.84647610      -0.00077497      -0.00067936       0.00386742      -0.06770512
C        1.51118686      -0.07352922       0.23637776     -59.11714083      -0.00417381       0.00253034       0.00436427      -0.00923765
C        2.21116789      -0.87443734      -0.87387358     -59.68241954      -0.00384368       0.00254566       0.00523041      -0.12121848
C        1.12193182       1.32060033      -0.22872115     -58.61975371       0.00637781       0.00167853      -0.00182868      -0.06832795
C       -0.45064563       1.57878722       0.06031716     -58.36490246      -0.00115372      -0.00279075       0.00236843       0.33191140
O       -0.71802495       1.42883723       1.31286487    -111.88697683      -0.00286084      -0.00027182      -0.00107746      -0.36799765
O       -0.76001939       2.78605564      -0.49260322    -112.76546328       0.00282343      -0.00421760       0.00693379      -0.35538664
C       -1.12948977       0.43996072      -0.84718861     -58.73868950       0.00195999       0.00589447       0.00169382      -0.07214717
H       -2.87820304      -1.66800229      -0.30462509     -12.83715723       0.00350640      -0.00135227      -0.00076925       0.08270960
H       -1.86559281      -2.45986302       0.90314067     -12.84629641       0.00037403       0.00036445      -0.00251182       0.08110553
H       -2.47453893      -0.83079745       1.19338398     -12.75224592      -0.00502552       0.00373788       0.00107005       0.08756152
H       -0.52889674      -1.61016690      -1.02662581     -11.89420070       0.00223270      -0.00478523      -0.00638131       0.13199769
H       -0.13299219      -0.08881030       1.53341122     -10.77529719       0.00575108      -0.00308024      -0.00700455       0.22663403
H        0.52905754      -1.75844331       1.25383782     -12.43453380       0.00478239       0.00180696      -0.00117345       0.11132194
H        2.21627157       0.01858869       1.07159483     -12.33415695       0.00149892       0.00384079       0.00132593       0.10518949
H        2.44577624      -1.87497274      -0.52150976     -12.81907206       0.00320299      -0.00345586      -0.00125685       0.08325632
H        1.58972402      -0.95246661      -1.76200649     -12.91141279      -0.00095426      -0.00192892      -0.00017470       0.07270591
H        3.14033711      -0.37814382      -1.14096327     -12.75259880      -0.00433289      -0.00318525      -0.00274736       0.08868253
H        1.62593707       2.10485616       0.33745595     -12.39535843      -0.00309383      -0.00275907       0.00288091       0.11030660
H        1.28161919       1.49601293      -1.29033542     -12.43352381      -0.00228138       0.00115509      -0.00425804       0.10827037
H       -1.13228066       3.39772596       0.16315190     -10.03702203       0.00020130      -0.00127937      -0.00542981       0.36186885
H       -2.19433842       0.67792603      -0.83351264     -12.29421567      -0.00474299      -0.00176689       0.00080561       0.11712626
H       -0.75937754       0.56737105      -1.86159570     -12.52876573       0.00177131       0.00241929      -0.00248197       0.10080187
