23
Properties=species:S:1:pos:R:3:energies:R:1:forces:R:3:charge:R:1 energy=-771.5376106906112 free_energy=-771.5376106906112 dipole="0.03985888965195628 0.7325242263099705 -0.20493206949507445" pbc="F F F"
C       -2.45208882       1.10110077       0.19046743     -59.47317680       0.00016268       0.00026020      -0.00232197      -0.10826113
C       -1.23696426       0.21258628       0.44050886     -59.11205686      -0.00090008       0.00317237       0.00246878      -0.00878719
C       -1.34631582      -1.08587713      -0.36941887     -59.28327654      -0.00124812       0.00372970       0.00015433      -0.09051758
C       -0.12743916      -1.95042978      -0.15678561     -58.50239730      -0.00010042      -0.00123528      -0.00075485       0.24079767
O       -0.18780306      -3.09283611       0.22208124    -111.74385883      -0.00030062      -0.00664261       0.00386775      -0.36030860
C        1.17500134      -1.24446880      -0.44590898     -59.28327647       0.00171255       0.00354374       0.00006473      -0.09051758
C        1.27816950       0.05438319       0.36420690     -59.11205674       0.00143790       0.00302547       0.00239782      -0.00878719
C        2.57763585       0.78472891       0.03788066     -59.47317679      -0.00026903       0.00028719      -0.00230887      -0.10826113
C        0.06125597       0.93426818       0.08208048     -59.29107639       0.00008275      -0.00059754       0.00395850      -0.06976855
H       -2.38941030       2.00778739       0.78794663     -13.38990160       0.00004885      -0.00249239      -0.00242179       0.03912972
H       -2.50847225       1.38444808      -0.85855955     -13.39306614       0.00074405       0.00009459      -0.00133421       0.03788919
H       -3.36867308       0.57931178       0.45511094     -13.38330804       0.00089692       0.00109644      -0.00246759       0.04030570
H       -1.20883668      -0.04845316       1.50458909     -13.33221204      -0.00161286      -0.00057461       0.00144173       0.03330810
H       -1.41537948      -0.83970521      -1.43195171     -13.12483353      -0.00109164       0.00060025      -0.00269173       0.05685538
H       -2.23931993      -1.64400679      -0.08370665     -13.18495108      -0.00064885      -0.00007270       0.00003409       0.05613919
H        2.00671680      -1.91108392      -0.21252047     -13.18495113       0.00063526      -0.00015367      -0.00000486       0.05613918
H        1.21005686      -1.00484557      -1.51160042     -13.12483371       0.00099371       0.00046898      -0.00275479       0.05685536
H        1.28188402      -0.20512113       1.42902764     -13.33221209       0.00161229      -0.00077736       0.00134361       0.03330810
H        2.66515002       1.68985272       0.63460741     -13.38990163      -0.00050668      -0.00245782      -0.00240532       0.03912972
H        2.60560432       1.06277157      -1.01370502     -13.39306615      -0.00080548       0.00019168      -0.00128678       0.03788919
H        3.43597951       0.15129570       0.24867727     -13.38330798      -0.00090022       0.00121008      -0.00241325       0.04030570
H        0.13685569       1.85596232       0.66304253     -13.32944615      -0.00013565      -0.00280230       0.00134270       0.03868766
H        0.04639338       1.20833045      -0.97606993     -13.31726672       0.00019269       0.00012558       0.00609198       0.03846910
