3
Properties=species:S:1:pos:R:3:energies:R:1:forces:R:3:charge:R:1 energy=-141.5133289119328 free_energy=-141.5133289119328 dipole="1.993862773669065 -0.5285333367167625 5.650586886388831e-16" pbc="F F F"
N       -1.54170872       0.02948728       0.00000000     -80.17653753       0.00022318      -0.00005916      -0.00000000      -0.28334546
C       -0.42675907      -0.26606369      -0.00000000     -58.30930189      -0.00051830       0.00013739       0.00000000      -0.17728479
K        1.96846787      -0.90099068      -0.00000000      -3.02748949       0.00029512      -0.00007823       0.00000000       0.46063026
