3
Properties=species:S:1:pos:R:3:energies:R:1:forces:R:3:charge:R:1 energy=-313.6527480985939 free_energy=-313.6527480985939 dipole="0.00304486252810628 -0.0927146482754572 -9.285604981830454e-17" pbc="F F F"
O       -1.34566211      -0.34523080       0.00000000    -109.36651134      -0.00030857       0.00128230      -0.00000000      -0.74139227
S       -0.01975137       0.60142723       0.00000000     -94.91972551       0.00008209      -0.00258038      -0.00000000      -0.51721549
O        1.36541358      -0.25619643      -0.00000000    -109.36651125       0.00022649       0.00129808       0.00000000      -0.74139224
