5
Properties=species:S:1:pos:R:3:energies:R:1:forces:R:3:charge:R:1 energy=-440.6904974669593 free_energy=-440.6904974669593 dipole="0.5603954649468647 -0.06927739759073069 0.05351165148028391" pbc="F F F"
O       -1.04581996      -0.98908909      -0.65466444    -111.54740169      -0.00119375       0.00049120       0.00122849      -0.63671982
S       -0.67809230      -0.06094993       0.43976758     -92.55894135       0.00942481      -0.00018663      -0.00251018       0.64793331
O       -0.82059721       1.35164902       0.01703381    -111.54740138      -0.00132201      -0.00084435       0.00084543      -0.63671976
O        1.12347129      -0.26312191       0.54022585    -112.16761807      -0.00732477       0.00115139      -0.00155519      -0.62728114
H        1.42103811      -0.03848813      -0.34236278     -12.86913499       0.00041571      -0.00061161       0.00199144       0.25278742
