3
Properties=species:S:1:pos:R:3:energies:R:1:forces:R:3:charge:R:1 energy=-166.59136454047203 free_energy=-166.59136454047203 dipole="-0.08307049311532805 -0.0009211170817720537 -1.1450182831615764e-16" pbc="F F F"
C        0.00240632       0.00002637       0.00000000     -54.99527740       0.00033070       0.00000729      -0.00000000       0.33368779
O        1.09292829       0.01211863      -0.00000000    -102.72346942      -0.00032446      -0.00000542       0.00000000       0.32950919
H       -1.09533459      -0.01214500      -0.00000000      -8.87261773      -0.00000624      -0.00000188       0.00000000       0.33680302
