4
Properties=species:S:1:pos:R:3:energies:R:1:forces:R:3:charge:R:1 energy=-195.2593292236734 free_energy=-195.2593292236734 dipole="-0.4803126917810273 0.07391673537774768 0.007218476094871512" pbc="F F F"
C        0.00076725      -0.00011808      -0.00001153     -58.34202881      -0.00595559       0.00091653       0.00008951       0.18354845
O        1.17878096      -0.18140608      -0.01771555    -110.82886213       0.00676497      -0.00104109      -0.00010167      -0.26786636
H       -0.44881931       1.00733052       0.00230038     -13.04421914      -0.00094610      -0.00345821       0.00003129       0.04215895
H       -0.73072888      -0.82580638       0.01542670     -13.04421914       0.00013672       0.00358277      -0.00001913       0.04215895
