15
Properties=species:S:1:pos:R:3:energies:R:1:forces:R:3:charge:R:1 energy=-542.6350198580296 free_energy=-542.6350198580296 dipole="-1.3362558661798871 0.7542992975349715 0.056132564604853386" pbc="F F F"
C       -2.04266334       0.20087554      -0.54513483     -59.01868798      -0.00022365       0.00158973       0.00045444      -0.09328000
C       -1.23438592      -0.37362377       0.63169339     -59.24281114       0.00883092      -0.00150827       0.00164545       0.03116321
N        0.17103263      -0.32359416       0.40370014     -79.71336421       0.00498201       0.00210446      -0.00295683      -0.08643039
C        0.89759178      -1.37887357      -0.16305246     -58.06392859       0.00228159       0.00076574      -0.00022333      -0.33961401
C        2.17623714      -0.81149396      -0.26808352     -58.17854686       0.00142528      -0.00004644       0.00419861      -0.09788249
C        2.20167301       0.51821792       0.20821551     -58.34181823      -0.00082108       0.00045939       0.00258878      -0.09299248
C        0.92917166       0.80788774       0.61788961     -58.19754037       0.00020514       0.00345884      -0.00733856      -0.05697868
H       -1.77131430       1.24248800      -0.70877265     -13.61244234       0.00009374       0.00418866       0.00461077       0.01933709
H       -3.11585414       0.13962795      -0.35644202     -13.78259348      -0.00274245      -0.00162146       0.00344397      -0.00537680
H       -1.80385971      -0.36004337      -1.44547401     -13.51692784      -0.00322835       0.00286158      -0.00399475       0.03228514
H       -1.52363210      -1.42269275       0.77558755     -13.50332551      -0.00338660      -0.00252280      -0.00180060       0.01352671
H       -1.49769873       0.18682566       1.54609373     -13.73411749      -0.00320201      -0.00110405       0.00186715      -0.01894082
H        3.05449292      -1.32276161      -0.66495008     -14.61508356       0.00192738      -0.00167046       0.00391881      -0.11107204
H        3.05386985       1.19338085       0.25442734     -14.56670978      -0.00830847      -0.00247861       0.00097115      -0.09880541
H        0.50533904       1.70377950       1.05961212     -14.54712248       0.00216653      -0.00447631      -0.00738506      -0.09493904
