16
Properties=species:S:1:pos:R:3:energies:R:1:forces:R:3:charge:R:1 energy=-553.9030673469348 free_energy=-553.9030673469348 dipole="0.5041310793204473 -0.061178001049024364 -0.08039226028659203" pbc="F F F"
C        2.11346580       0.07875634       0.57504798     -59.46323285      -0.00434402      -0.00135926      -0.00447194      -0.10998390
C        1.25052932      -0.30852974      -0.62628180     -59.40925283      -0.00011111      -0.00055824      -0.00116687       0.00066360
N       -0.14766561      -0.12000767      -0.35179771     -79.40363893      -0.00166433      -0.00130113      -0.00592968      -0.00650305
C       -0.97170514      -1.03487694       0.22222245     -58.52847432       0.00111125      -0.00091273       0.00032389      -0.02617341
C       -2.20554327      -0.46908331       0.39167584     -58.58604307      -0.00096854       0.00048844       0.00126433      -0.06925926
C       -2.12284775       0.85020629      -0.09311422     -58.58614744       0.00152967       0.00033998       0.00057871      -0.06927892
C       -0.84205427       1.03276437      -0.53757280     -58.52874749      -0.00065779      -0.00072019       0.00078155      -0.02621744
H        1.84974428      -0.52971439       1.43698343     -13.31986783       0.00678231       0.00611605       0.00116771       0.04724137
H        3.16565016      -0.07089322       0.34734656     -13.35147915      -0.00583751       0.00094634       0.00157232       0.04408942
H        1.95344941       1.12394978       0.82937844     -13.31987396       0.00611073      -0.00461621       0.00511631       0.04724083
H        1.52336541       0.30347401      -1.49134655     -13.20455862       0.00031671       0.00133836       0.00280157       0.04667973
H        1.41909023      -1.35941603      -0.88035674     -13.20455590       0.00032265       0.00077999       0.00300827       0.04667886
H       -0.62358796      -2.02145172       0.45987343     -13.73017268       0.00091323      -0.00122570      -0.00341236       0.01912439
H       -3.07083211      -0.94355624       0.81106515     -13.76847121      -0.00209640       0.00102147       0.00083451       0.01827773
H       -2.91293313       1.57477753      -0.11434275     -13.76843384      -0.00272236       0.00039843       0.00123600       0.01828519
H       -0.37812541       1.89360089      -0.97878074     -13.73011720       0.00131552      -0.00073558      -0.00370432       0.01913487
