18
Properties=species:S:1:pos:R:3:energies:R:1:forces:R:3:charge:R:1 energy=-722.5488694232142 free_energy=-722.5488694232142 dipole="-0.7806110119421519 -0.8078099702234387 -0.12951942771738018" pbc="F F F"
C       -2.17291084       0.10197105       0.53843275     -59.50646092      -0.00127611       0.00166892      -0.00289638      -0.11218354
C       -1.31603941      -0.23590064      -0.68094889     -59.41221500       0.00343602       0.00285956       0.00124467      -0.00352424
N        0.06894463      -0.40117732      -0.32042394     -79.31394506      -0.00071767       0.00274330       0.00638471      -0.00066566
C        0.64348075      -1.58704335      -0.03951729     -58.40993580      -0.00095899       0.00214248       0.00007823      -0.00582946
C        1.95120077      -1.38581732       0.34702088     -58.58336928       0.00217859      -0.00064011      -0.00071018      -0.06209301
C        2.17673834      -0.01222728       0.30716414     -58.26428034      -0.00156433       0.00070578       0.00123251      -0.04219484
C        0.99346287       0.59534857      -0.10484587     -58.62763115      -0.00205359       0.00239984       0.00500135      -0.00279358
C        0.75161234       1.99912921      -0.29216982     -58.81579269      -0.00190203      -0.00059665      -0.00065326       0.19841520
O        1.55871341       2.87956616      -0.09033092    -111.65943294      -0.00101319      -0.00250389       0.00204862      -0.36429011
H       -3.21248911       0.21328684       0.24270525     -13.26797921      -0.00282498      -0.00470230       0.00371979       0.05195098
H       -2.10139199      -0.69105549       1.27931471     -13.28542478      -0.00444848       0.00732104       0.00124716       0.05005084
H       -1.83761959       1.03043190       0.99423919     -13.28250565       0.00236623      -0.00331962       0.00012794       0.05203184
H       -1.66151243      -1.17262559      -1.12747629     -13.10001293       0.00136635       0.00652137       0.00155364       0.05570918
H       -1.40444924       0.55277333      -1.43266197     -13.13339868       0.00327183      -0.00603976      -0.00593568       0.05439588
H        0.09549298      -2.50510226      -0.13585628     -13.51888307      -0.00068159      -0.00019284      -0.00285856       0.03818660
H        2.65238298      -2.14730429       0.62397731     -13.56632476       0.00525797      -0.00402848      -0.00350900       0.03804861
H        3.08198984       0.51075955       0.54164408     -13.41771646      -0.00135686       0.00012496      -0.00207302       0.05501408
H       -0.26760633       2.25498697      -0.65026700     -13.38356070       0.00092083      -0.00446359      -0.00400253      -0.00022877
